LAMMPS data file via write_data, version 2 Aug 2023, timestep = 102194, units = real

10032 atoms
1 atom types

0.446181 161.482 xlo xhi
0.819034 161.82 ylo yhi
-40 40 zlo zhi

Masses

1 12.001 # C

Atoms # charge

954 1 1.356236257785137e-06 39.31968547943996 6.787733650813621 -0.4266636668604559 0 0 0
1405 1 -8.809672099041599e-07 38.51909216497437 4.37144100644362 -0.563523203061131 0 0 0
1246 1 2.801484729274273e-06 39.88562881159886 3.9290283386280063 -0.7203291330483702 0 0 0
318 1 -1.159252632401686e-06 40.202758344944044 2.53116606204924 -0.5793051382302913 0 0 0
39 1 3.919009827831055e-06 37.4893404054538 3.4237090076603396 -0.28817198821555196 0 0 0
151 1 1.27167089708502e-06 38.267204456918456 5.78623132008282 -0.36827439679153434 0 0 0
1404 1 -8.958598296873732e-07 37.891523503094795 2.003430723732591 -0.21850187510297572 0 0 0
1386 1 -6.015617770305237e-07 40.647016327326355 6.3480295698132405 -0.7484754097963847 0 0 0
1380 1 1.609531009374998e-07 39.22360026843246 1.5031072538573491 -0.19426929196634057 0 0 0
8403 1 4.774075517785525e-06 36.77739117098947 1.0832922202836337 -0.09726319853367053 0 0 0
121 1 5.671017382469223e-06 10.324821183101186 9.241512392004049 -0.0033569655133697893 0 0 0
7603 1 -3.619542622200489e-06 10.616926992517003 7.849259747862967 -0.025907022728102212 0 0 0
9442 1 4.261474581407354e-07 40.47442668591637 12.866075341190296 -0.42379387265803203 0 0 0
9597 1 1.757758740159043e-07 40.10896923540471 9.148818375687872 -0.3018584664962024 0 0 0
9897 1 -7.870606919258005e-07 39.182120338356775 13.353016796962299 -0.06267153034229846 0 0 0
9432 1 1.492597456700939e-06 39.03837467685208 8.176621745914137 -0.15433071654240568 0 0 0
9890 1 -5.111528979896696e-06 39.78706189987269 10.581111200563258 -0.12744219599719336 0 0 0
10031 1 1.767302725205755e-07 33.45691214992635 19.078362563996084 -0.002244239707097501 0 0 0
20 1 -5.680561497023451e-07 33.76287647895616 20.487347458706655 -0.19069839168498962 0 0 0
2148 1 1.381656017998556e-07 39.99753890564637 15.676449404761971 -0.44920812990572956 0 0 0
2466 1 -6.32233844888308e-07 35.23885235604421 20.60811067801528 -0.11235431098503802 0 0 0
1516 1 -1.027227973168787e-07 35.83188612197454 19.26899573680145 -0.01651412164067037 0 0 0
1082 1 -1.888200768830617e-06 40.24772192097025 17.058927229433674 -0.0708291898103647 0 0 0
1973 1 -1.557722071471312e-07 24.61866364504419 26.560170224534467 -0.05884231792020814 0 0 0
768 1 -3.896798759749076e-06 26.00573228175863 26.955761472235142 -0.32595344903480755 0 0 0
617 1 3.111660418407547e-06 27.013734488084157 25.95843752760236 -0.33832021719279 0 0 0
1700 1 2.796317204949161e-06 29.217546372908505 23.964058338527188 -0.3258038524785124 0 0 0
1374 1 -5.97589283606037e-07 29.45298488291619 25.37367482803686 -0.579920721474997 0 0 0
2012 1 7.389169459776079e-07 28.401669137021457 26.330354052031563 -0.5927083520975318 0 0 0
2274 1 -2.736182038498569e-06 30.47970470545061 23.27956240536273 -0.0409589187453809 0 0 0
1676 1 -3.154874049990375e-07 31.533904439614567 24.304097826528828 -0.007469022281519842 0 0 0
308 1 8.867120322095245e-07 30.883523035662773 25.588015535247695 -0.28226550374786535 0 0 0
1534 1 -1.435720760188663e-06 31.285948701630144 26.94635836446375 -0.06027807853125122 0 0 0
1521 1 -1.213730811223945e-06 2.1077359286893707 33.18119124838318 -0.6021778137528881 0 0 0
1656 1 3.901588638284548e-06 1.358389257305236 31.955453865074816 -0.7428636988925691 0 0 0
2709 1 1.347164994405792e-06 1.4213430503504627 29.514548828042408 -0.7303015096136521 0 0 0
1067 1 4.81437202451418e-07 2.065597515232986 30.70359780388145 -0.8156362184575692 0 0 0
1201 1 2.429130619943654e-06 3.519152731929828 33.40420000444838 -0.18691162074329296 0 0 0
1982 1 -1.249539313810666e-06 3.371396133896699 30.270976997200936 -0.1924998714905091 0 0 0
1960 1 -2.409727111046811e-06 1.472636318501306 28.275255021544126 -0.25239479467448667 0 0 0
625 1 2.060208361374938e-06 26.604782645361706 33.480976911097954 -0.07438043608340304 0 0 0
1690 1 9.731200664997441e-07 25.91051666017326 30.724344215368617 -0.7706786944242958 0 0 0
917 1 4.000098757721282e-06 24.88267792320595 31.733340036210972 -0.5319305248332294 0 0 0
1971 1 3.608420073228369e-07 25.360713045772822 29.42865503814179 -0.4148958268936154 0 0 0
1517 1 -1.654252729042793e-06 25.205457084198194 33.05159963353342 -0.05604343933197376 0 0 0
1833 1 -8.289295163471655e-07 26.331599723420716 28.365716489231918 -0.3548137111785347 0 0 0
10021 1 4.993249142125344e-06 29.558780666921844 30.45304388576437 -0.06561052654797002 0 0 0
1980 1 2.442320782038154e-06 27.312370820815577 31.127758077546797 -0.7152403990835258 0 0 0
1830 1 -2.064152045823386e-06 28.782451875899532 27.716428998241376 -0.36234641976475285 0 0 0
2919 1 -1.73549131417261e-06 27.605856707896294 32.49101909444664 -0.3805622269208265 0 0 0
1974 1 2.617253350822857e-06 30.199217891623228 27.925633111709327 -0.09633594187290784 0 0 0
8815 1 -5.623964578989338e-06 28.230522316327015 30.058021764324906 -0.48548861522322373 0 0 0
2141 1 2.355115340323122e-06 27.729067054109294 28.66266266591381 -0.4374802571525509 0 0 0
3228 1 -4.6947931260366e-06 37.58699668045415 33.127097715152246 -0.056449012781230504 0 0 0
2135 1 5.373052847118531e-06 40.00630672004564 31.82058218807661 -0.28166796322212456 0 0 0
1986 1 -5.23058007300542e-06 38.803937680234775 31.03628658142416 -0.040481010639428675 0 0 0
3826 1 5.636086109199467e-06 38.69087359183389 34.03079492580146 -0.253239098989698 0 0 0
2308 1 -5.841104706028055e-06 39.93322798912355 33.27965865126097 -0.31162089732817644 0 0 0
2128 1 1.151584699495001e-06 36.28727318998959 33.7193945463049 -0.005511157965327559 0 0 0
1666 1 7.590350931466205e-07 1.4599429780240385 34.4342186548336 -0.41075820825546266 0 0 0
3174 1 -2.116436998017557e-07 2.357871685193926 35.511493308843605 -0.014997262424856503 0 0 0
3206 1 -1.967023194666961e-06 17.615899212198585 40.26002630460922 -0.5309261367102388 0 0 0
2755 1 -3.802555372404981e-06 19.63180878436917 38.77505397951288 -0.36860323988945426 0 0 0
2451 1 4.538489654162814e-07 19.036045111603134 40.042348345689184 -0.77615169487426 0 0 0
3219 1 7.818371477834318e-07 20.143830777399337 40.983784728954035 -0.9721550747721153 0 0 0
2317 1 3.546179225898116e-06 21.07148683738187 38.98981999572799 -0.2864276595946733 0 0 0
2300 1 1.222243971310544e-07 21.40276663467184 40.390949350120465 -0.5842705309585171 0 0 0
921 1 -5.807997573943624e-06 38.5759075553855 35.47613158755471 -0.4199966257337545 0 0 0
4147 1 2.81871102285336e-07 39.605179335411854 39.87213091050937 -1.218031109507387 0 0 0
3230 1 -1.496384402541184e-06 37.02093131746333 39.93913315844979 -0.2874486858792816 0 0 0
2144 1 4.611386103657578e-06 39.81032840181138 36.085159951336514 -0.7976903786526478 0 0 0
3690 1 1.203254811045495e-06 38.9036606622898 38.60709007125953 -1.0368175275877738 0 0 0
2458 1 -2.929736492657264e-06 39.802757730518515 37.47915083195985 -1.243924656438208 0 0 0
2436 1 -6.695539508383419e-07 37.531986189320044 38.60917652900434 -0.615498233835626 0 0 0
3852 1 1.492837788594215e-06 37.31846112486185 36.14097544983833 -0.23521039563404023 0 0 0
2161 1 -4.584976112734229e-07 36.73501809993944 37.46790758061518 -0.2828030359728739 0 0 0
9398 1 1.698510312730939e-06 0.5607598765503181 1.8049564300188004 3.956788969025422 0 0 0
446 1 8.286758301986885e-07 1.5136483734385962 2.8705354739489843 3.8338341664371365 0 0 0
886 1 -6.051926025804621e-07 0.9734025825359427 4.169643897201301 3.4197262180871673 0 0 0
1038 1 4.198500391100479e-07 2.910049765054275 2.5017400423752116 3.8507161338926963 0 0 0
420 1 2.8175407022768e-06 5.187930911833906 2.8888600566061493 3.07878904049166 0 0 0
8626 1 1.452378928186449e-06 3.8597900468647874 3.4192463085917413 3.2825896633896967 0 0 0
269 1 -4.471798254121473e-06 5.570281952859476 1.5464350525369828 3.426355248264992 0 0 0
135 1 7.235092132143461e-07 3.3103210993043675 4.723229191246868 2.9085376900365265 0 0 0
1039 1 -1.492241641143366e-06 1.9250825194087438 5.150247706479551 3.102418400217727 0 0 0
10011 1 1.052641235510521e-06 1.4049152348058802 6.421459792917147 2.5968880714552585 0 0 0
289 1 -3.021568057710866e-06 4.141011073983721 5.664432454070468 2.2489984661163267 0 0 0
9403 1 -2.87364212333413e-06 6.06676703800867 3.8025005729326424 2.386661839212532 0 0 0
9705 1 -3.321097203842771e-07 5.4755994753321735 5.084959258190092 1.9918490055884142 0 0 0
736 1 -3.824118702949741e-08 6.276494840203025 5.949408719254755 1.1918686694850533 0 0 0
9707 1 1.599894648637856e-06 3.7903674163187575 7.048612391442432 1.9868618989503082 0 0 0
588 1 4.851314900362891e-06 6.967349392751115 1.2610291191979286 3.1451630523256884 0 0 0
8519 1 -4.668074777419706e-07 3.2325393486313017 1.07899975821451 3.907978437432883 0 0 0
884 1 -1.694180012938584e-06 2.3860084666162362 7.389446186585323 2.142599659862339 0 0 0
9716 1 5.953367395242215e-07 5.971888812872822 7.3524720821665985 0.9936844143772765 0 0 0
9734 1 -3.302600717056126e-06 7.84641672550274 2.182487100814876 2.4836518213887095 0 0 0
8811 1 3.621981536548746e-06 11.474593434015361 1.5028497684140147 2.982167199545324 0 0 0
9854 1 -1.938893899967875e-06 10.395849269964323 2.3348334204909102 2.3773779685144225 0 0 0
139 1 3.908128832323665e-06 9.164173456300832 1.5956590259006145 2.524458261048734 0 0 0
9570 1 -4.458516875416318e-07 12.855439865055306 1.73199845488202 2.600911226442362 0 0 0
738 1 1.12667244793474e-06 7.418132896017046 3.483349133190539 2.0217869294369204 0 0 0
911 1 -5.398155385194503e-07 12.210616118477281 3.8664550554482378 1.6522508004909098 0 0 0
10014 1 1.487768126764988e-06 10.775886271835082 3.503830030227578 1.6727598634972896 0 0 0
582 1 4.764042114066558e-07 13.274191011928373 2.9675166603215075 2.0198923064993393 0 0 0
1642 1 2.321022465064104e-06 9.770787638777431 4.401589424794857 1.1712902616886431 0 0 0
9711 1 -2.26688848316281e-06 8.344564587170503 4.386199196926734 1.3641809007291938 0 0 0
9876 1 -4.478756316650401e-07 7.664298567802794 5.540845534110003 0.8299284322524245 0 0 0
9712 1 -2.663624993536062e-06 12.668819926838959 5.033253340474743 0.9827865793530315 0 0 0
1203 1 3.482695521174473e-06 8.197536999892078 6.800854058880301 0.3472671574878735 0 0 0
448 1 1.685243398642788e-06 11.742919765767734 5.86323498450894 0.27899162738473154 0 0 0
10023 1 -2.296294029160983e-06 10.307722012668197 5.565255833249908 0.48288706226513195 0 0 0
23 1 -1.01083494156301e-06 9.617441684242838 6.786282582799314 0.15045256242826768 0 0 0
297 1 -1.559398610309626e-07 11.969561360628637 7.302787767019141 0.17585719068146494 0 0 0
8810 1 -1.158227098521647e-06 19.504284580884647 1.266410847463687 2.3441940174770783 0 0 0
9277 1 3.777489073486517e-07 19.14661100578328 2.6420162518011803 2.205000820261867 0 0 0
602 1 -2.482619349590542e-06 19.824138857457754 3.9369980746032467 2.3613260886872927 0 0 0
283 1 -2.452459408473079e-06 19.231258069338505 6.37703436637736 1.786304764772125 0 0 0
9278 1 -1.420859362062654e-06 18.92081433468206 4.923735338848573 1.8266015871423056 0 0 0
8955 1 7.593829923283058e-07 17.78730837619082 2.9185865713433112 1.7112747930127954 0 0 0
9421 1 -5.245967507817861e-06 14.636591693722828 3.2588732295825125 1.6277758656207462 0 0 0
579 1 1.745002704285625e-06 17.636902478600103 4.347303655505267 1.4899626466711609 0 0 0
9446 1 -3.402326219759111e-06 16.865999505885792 1.8095277951579958 1.6147797935065629 0 0 0
8062 1 3.850809570660196e-06 15.428390288178246 2.0829229907283153 1.7403579242091223 0 0 0
9728 1 2.361593758451463e-06 15.068514802248929 4.59424344893896 1.2179643821884116 0 0 0
8516 1 -4.480623200221745e-06 16.43695465564576 5.0715228747381 1.1233445376746993 0 0 0
9757 1 1.058464026371109e-06 20.36871086286752 6.768294868822287 2.548406626894087 0 0 0
7763 1 3.982220795742397e-06 16.65021573829952 6.338870091692951 0.5353561346114108 0 0 0
9264 1 4.807210266383199e-06 14.250842227899042 6.959057401655849 0.7604942400872134 0 0 0
9269 1 -1.064309926468443e-06 14.027695798858506 5.5548304454478075 0.9579192414590625 0 0 0
9723 1 -3.933108817501252e-06 15.60600272777592 7.3543893226936135 0.5214350228785015 0 0 0
7605 1 -1.935284504483992e-06 18.03693626267913 6.8498313650766685 0.5276182478149137 0 0 0
9441 1 1.923232372705308e-06 25.433763182966995 4.658023272116735 4.493626125552246 0 0 0
9451 1 -2.503126627362295e-06 25.737155843915446 3.2644567769640367 4.273553390250378 0 0 0
8819 1 3.838652477529403e-06 24.018835175277093 4.87449409050785 4.179383551828162 0 0 0
8673 1 2.035793318887202e-06 26.119882444646002 7.018663637724663 4.159080588794451 0 0 0
9578 1 -3.730235779111912e-06 26.478365239558293 5.614215700433084 4.327394462137967 0 0 0
150 1 1.50881659714136e-06 24.747102047923995 7.339143515002509 4.077698679343711 0 0 0
9730 1 -6.865113175880122e-06 23.752346560881286 6.268414568673637 3.974326178371582 0 0 0
8375 1 4.757485130256478e-06 24.488842464022124 2.6815064321085784 3.7833142109537876 0 0 0
10029 1 -5.418323790182256e-06 23.407706143023326 3.6167064078112348 3.6688644357132985 0 0 0
9721 1 -1.834610489616362e-06 22.149563030783717 3.3159154699419586 3.065041157525702 0 0 0
10010 1 -8.488781762308606e-07 24.590330386201515 1.4280553828910578 3.0954460213467314 0 0 0
133 1 2.917604472345292e-06 22.415110859520258 6.550065579103453 3.4536315696150734 0 0 0
8520 1 2.187209941634238e-07 20.95120227010379 1.056945516967788 2.4828557754190537 0 0 0
7758 1 3.110666325717437e-06 21.122355967361994 4.324612730972215 2.8397242515541543 0 0 0
8663 1 -2.218567487187462e-06 21.28648757176718 5.735467458605504 3.010908739943584 0 0 0
8365 1 -4.71203287423505e-07 22.096338229805166 1.9191257199988252 2.7276062151503053 0 0 0
9124 1 2.15244616914162e-06 23.28512071787854 1.0334701924969178 2.6508598034460413 0 1 0
8832 1 2.116322167407259e-06 27.027387328247737 2.813646901433473 3.753915002152256 0 0 0
747 1 1.796451902555396e-06 27.136521305800375 1.51687286435866 3.134135067093052 0 0 0
304 1 2.68334696212208e-06 27.827190588033943 5.186936993735954 3.9867816872323583 0 0 0
9737 1 -2.351932590564931e-06 28.823960100503704 6.184666735824317 3.8380857416643472 0 0 0
8518 1 -2.472513653886677e-07 28.06837373204348 3.785549819593676 3.65324598589796 0 0 0
9604 1 1.306528667130435e-07 30.144803389998557 5.74043134900666 3.376935192643526 0 0 0
9437 1 -9.200930891906101e-07 29.367728668074868 3.339900909306474 3.183172393616561 0 0 0
8972 1 1.497411411116589e-06 29.603172163318153 1.9549507829575257 2.7673530443585315 0 0 0
8965 1 -1.144473858370743e-06 30.370489103597283 4.350371381718586 3.0457908946501258 0 0 0
16 1 7.87913796027051e-07 31.14217680046499 6.745132982006619 3.2044125897600106 0 0 0
9747 1 -1.993727654032995e-06 28.472541555597132 1.0960097189595814 2.763657716907207 0 0 0
282 1 2.122175231614176e-06 31.622238047088352 3.915965074788508 2.494342717767735 0 0 0
9589 1 1.754409370786914e-06 32.43839322946595 6.300788004390313 2.675887552142381 0 0 0
454 1 -2.437042698019698e-06 33.41608191438037 7.282598365761701 2.2914088316976184 0 0 0
8828 1 7.764433922197167e-09 30.89131315362063 1.4030048704526807 2.351680275041847 0 0 0
9580 1 -3.147365863438722e-06 31.824186744148783 2.5112429990886507 2.1316221863148175 0 0 0
10030 1 -2.469175528568845e-06 32.59572576010793 4.946080954189138 2.2507472643743185 0 0 0
9592 1 1.414368410085354e-06 33.024532587331834 2.1203414670035587 1.4890625796657357 0 0 0
9131 1 4.023565674159124e-06 33.76106381127373 4.5839814717944005 1.4806652194751626 0 0 0
9896 1 -6.065015172182497e-06 33.9427277846937 3.188087058712513 1.118374406980142 0 0 0
9576 1 5.291758178448125e-06 34.557677960397335 6.966622971147559 1.4699002566046864 0 0 0
1251 1 -6.022044881572042e-06 34.76019508236764 5.561307357512916 1.0912448917951403 0 0 0
9583 1 2.331866171684238e-07 36.97239784131795 6.23525805125406 0.05555528424291812 0 0 0
9156 1 3.195990430124307e-06 35.93901261636784 5.272445940005662 0.3241339419794207 0 0 0
9744 1 7.85570774493316e-06 35.089925475529 2.901906977340737 0.30535983511839815 0 0 0
478 1 -5.330390205990354e-06 36.16037187801186 3.847110729519071 0.053338847321793524 0 0 0
9714 1 -4.484251414547946e-06 35.3856620536422 1.5052967864539268 0.05387775183028566 0 0 0
1358 1 -2.581423116092274e-06 1.3314806098255543 11.55690416366931 1.5628326186538344 0 0 0
586 1 8.156621304211686e-07 0.9201673690394087 12.966184691664768 1.496011446448959 0 0 0
9699 1 -1.571434125470506e-06 0.6146716592661294 9.062614584694632 1.9254281269398674 1 0 0
748 1 2.345298574492338e-06 2.0315654041801463 8.759236269555837 1.8766508775973867 0 0 0
280 1 -6.418603734278938e-07 4.771074440361884 8.013617334147368 1.508688374037696 0 0 0
9279 1 3.462740076898285e-06 5.1138573814118224 11.83238711274908 1.6245968187632462 0 0 0
1633 1 -1.813650826049118e-07 3.0677872119684664 9.767992261936943 1.682160613584811 0 0 0
9551 1 4.064598485932491e-06 4.453368835644425 9.3980129978819 1.4895846942158535 0 0 0
134 1 -2.643432040330684e-06 3.3194683356683696 13.573612449810113 1.3736618161689234 0 0 0
866 1 8.281298922371838e-07 2.7064104255353985 11.171552036406068 1.6833365658125983 0 0 0
2100 1 -1.028663555238674e-07 3.7188002445034885 12.200842802505106 1.657588414361661 0 0 0
441 1 5.504136219788847e-07 1.9350687285974266 13.946632742038855 1.216466676814094 0 0 0
290 1 -4.972552456808388e-07 6.120684823566272 12.937903690472865 1.8078897447599533 0 0 0
887 1 -3.132913262468562e-06 5.416790934961254 10.477055361582849 1.4105899966720215 0 0 0
1190 1 -1.484637669718625e-06 6.846117231918758 10.355710938095061 1.0653860289971946 0 0 0
9399 1 -4.704626609175477e-06 7.188844214835875 7.886863165589435 0.44004468851983014 0 0 0
9869 1 -6.693781652161723e-07 8.53421295251194 13.746760942298197 2.00508004707982 0 0 0
9886 1 -7.896854480257676e-07 7.529886861943295 12.725140296406035 1.7323028892851504 0 0 0
9867 1 1.84189771496035e-06 12.215944400766931 12.806503552723273 1.5152109635523525 0 0 0
293 1 4.69412340203812e-06 9.943913586605499 13.515073729903497 2.1286319920633536 0 0 0
1475 1 7.261459288032679e-08 7.7763315820131504 11.447261123193147 1.1434574574888114 0 0 0
1664 1 5.965254254135244e-06 7.5929976755166235 9.262028842584863 0.4238023187929421 0 0 0
1070 1 -3.324964843662293e-07 13.136394225426043 11.789657950850177 1.0794804375672684 0 0 0
8528 1 -4.269231235268234e-06 10.789686244747951 12.536806320312675 1.4671134234094376 0 0 0
130 1 -8.279900057667211e-07 13.18467069771412 7.942645464250701 0.4906471693775117 0 0 0
882 1 1.451588243515933e-06 10.321209675155078 11.484957067784444 0.6009329594559474 0 0 0
1037 1 -5.402129096533648e-06 11.216475149172867 10.368132668991507 0.325230938626996 0 0 0
8218 1 -1.003110820692321e-06 13.44113886802863 9.359385307194584 0.3649878909075187 0 0 0
762 1 5.920205709004922e-06 12.597584268259332 10.508598741930916 0.6092475486789458 0 0 0
9423 1 -3.909930289119901e-07 12.302370300355618 14.125770517122021 2.140938491211307 0 0 0
8822 1 1.677931385335452e-06 8.919506578638522 11.124593147481 0.30947065183236677 0 0 0
749 1 -5.46293766127276e-06 8.938015306917757 9.69672111361787 0.03950849876905212 0 0 0
1215 1 -8.502688776251821e-07 19.389143537102697 12.453411621655318 2.8561213154551606 0 0 0
1496 1 3.162043880414189e-07 18.822653329272875 13.801151627297436 2.883656006919445 0 0 0
136 1 1.148057101704736e-06 17.454319575480085 14.07515590833306 2.6444686073335935 0 0 0
9724 1 5.822387785514582e-07 19.1414026031855 10.055946596780997 2.0738093432156193 0 0 0
764 1 1.018511055335403e-06 18.59564175223685 11.421191516658524 2.299712955982636 0 0 0
9272 1 8.668092309344066e-07 16.546485912923597 13.038447363706885 2.1464951288666785 0 0 0
447 1 -6.60627590201579e-08 17.287266995952656 11.828166438247555 1.8241872405716693 0 0 0
9725 1 -3.96203539240747e-07 15.205446740078948 13.343668307637515 1.791119428761145 0 0 0
9130 1 1.180536668733689e-06 20.306875597123046 9.53837379964204 2.7095199643545604 0 0 0
8821 1 1.665612491708046e-06 18.35553085137243 9.121535846322239 1.3199242209865907 0 0 0
9120 1 -9.470817559156797e-07 14.51223450509783 12.194933137012013 1.1797695271735014 0 0 0
9425 1 3.740240859320676e-07 18.728392775262744 7.744953414027292 0.8943085727857164 0 0 0
1062 1 -1.603319102011502e-06 15.258523452348374 11.103429572052086 0.6177373518456143 0 0 0
9864 1 -3.054510419694956e-06 17.101835055155306 9.538609736638264 0.808828810559865 0 0 0
427 1 3.386051973114368e-07 16.63321262880795 10.914411899848899 0.9478288298790346 0 0 0
8054 1 -1.317083739654779e-06 14.825565209795988 9.702077203548606 0.3009450369830594 0 0 0
286 1 3.071183042227532e-06 15.900405294919132 8.749224020989454 0.4611579375843989 0 0 0
9127 1 -2.451710675935304e-07 25.416592116814016 9.75174718012968 3.968290015215643 0 0 0
9575 1 -2.076865135980377e-07 24.371186176049108 8.738090875103559 3.978255279155228 0 0 0
9116 1 2.132833721281424e-06 26.807371196945347 9.426407457271354 3.912727173415407 0 0 0
9756 1 1.159974856695944e-06 23.022757150286274 9.009085860143374 3.5372383554282045 0 0 0
9731 1 -6.170104688077438e-07 25.947415007616236 12.097058409587417 3.594960487992969 0 0 0
8524 1 -5.930573511933601e-07 24.9249072709657 11.097626682378737 3.8244590232307716 0 0 0
452 1 -9.946655869161325e-07 20.77024071793312 12.028335101713806 3.128706299707297 0 0 0
147 1 -3.783687848632478e-06 21.16874562205226 10.650224808019438 3.1541635626703903 0 0 0
9581 1 -1.2134294492816e-08 25.486836246164156 13.40526846897514 3.257340580006685 0 0 0
153 1 -1.972912754617806e-06 23.05627470588474 12.800741507093742 3.4205939225384014 0 0 0
8981 1 4.3951785016344e-07 24.080525851167717 13.802312018621958 3.303115810200641 0 0 0
14 1 1.607687395419055e-06 23.513330270915404 11.440437789252604 3.563758140049688 0 0 0
156 1 -2.549790664371776e-06 22.555474699685295 10.39539355715751 3.424926471828398 0 0 0
9135 1 1.146252150793781e-06 22.080077719143755 7.966114074791771 3.2792259095891727 0 0 0
8983 1 -1.496230573910795e-06 21.642836424576597 13.14881093292823 3.340992030279682 0 0 0
9572 1 4.598391899403309e-06 26.766506255121122 14.009791730010239 2.8887754887408383 0 0 0
9733 1 -1.042771190479241e-06 20.768982980874902 8.175255313599754 2.8100763818068075 0 0 0
4 1 -2.054469487346167e-06 27.13978060946855 8.034110357260538 3.973530036444043 0 0 0
455 1 4.983031586747177e-06 27.372807457790778 11.823352889295467 3.5576116433549734 0 0 0
9132 1 -1.079069716768133e-06 28.53260382222131 7.595837829076322 3.9281053270754493 0 0 0
10 1 -2.386409155653857e-06 30.501818968915554 13.411667797422998 3.5901867522730493 0 0 0
1563 1 -1.092389194816412e-06 30.36630008805682 10.785898035436688 3.972132784742578 0 0 0
296 1 1.239472273102671e-06 31.785025474585023 10.443727545878952 3.676447232812664 0 0 0
8665 1 1.61542815403648e-06 30.217425839932968 12.142193423073966 3.8098687486114056 0 0 0
8812 1 -5.745011393658295e-06 27.8810223815566 13.1390162699127 3.1920639393397523 0 0 0
137 1 9.421354344313349e-07 29.172261990005413 13.808525600939166 3.0424826426889675 0 0 0
1866 1 -3.496570980671132e-08 30.95871557471856 8.114925492437683 3.585454056541385 0 0 0
8229 1 -2.254646858469711e-06 27.809533144605858 10.47795573335043 3.8248399685627112 0 0 0
9292 1 1.776177485784958e-07 32.93014069910016 12.826638463652955 3.255596695631457 0 0 0
9577 1 -3.064200021517249e-06 32.009157647625315 9.04597563679426 3.4622764516686244 0 0 0
158 1 -4.537386563599477e-06 32.829759896805264 11.392508213786861 3.4440406284281586 0 0 0
9295 1 -1.305514557722876e-06 29.55565676920059 8.583874412551829 3.813057137323597 0 0 0
152 1 9.210779581547701e-07 29.15212065383791 9.950632418764608 3.8622844938291103 0 0 0
784 1 3.36109165963161e-06 31.902224039786972 13.822582791193339 3.287597564841248 0 0 0
1694 1 3.528222862307639e-06 33.238999064719515 8.634889582449166 2.80442714558975 0 0 0
9892 1 2.563297543320409e-06 34.10942917646762 10.941356000807776 2.911930017574419 0 0 0
9283 1 -5.688454592228664e-07 34.21201163263778 13.256955285703595 2.638823064569069 0 0 0
9738 1 -3.768181718814823e-06 34.27623065469241 9.587694536825278 2.464377688368087 0 0 0
9429 1 1.157433950821352e-06 34.94733239141231 12.018858934563022 2.407267022515084 0 0 0
166 1 3.592572910278424e-06 35.47848611411052 9.29582447316225 1.6837946320151498 0 0 0
456 1 2.300426444543091e-07 36.10986731650514 11.819764607637437 1.577744093994797 0 0 0
1243 1 -1.839398278837001e-06 36.353804838547056 10.405965310653363 1.281992013899785 0 0 0
1091 1 -4.65233583250152e-06 35.53424294596927 7.984437944135068 1.1853116547638176 0 0 0
19 1 1.433667100841918e-06 36.96661574492642 12.835119176838482 1.0405935747280908 0 0 0
2014 1 2.675884931843675e-06 36.72134222800538 7.59888448607171 0.41722793950003 0 0 0
1975 1 -1.085164794446813e-06 37.70353919401594 8.625213906280724 0.1337733052854047 0 0 0
9276 1 3.974756830581183e-06 38.49624201588672 11.016927577978059 0.3047913616038833 0 0 0
9268 1 -1.177454535476741e-06 37.447354387681116 10.02446905611532 0.4707366588132035 0 0 0
315 1 -1.705686712136223e-06 38.21345344422265 12.403294715604034 0.4324806964004009 0 0 0
9561 1 1.560297750100026e-06 5.726327423778405 14.288913047092358 1.6813992782690337 0 0 0
601 1 2.140017659087168e-06 0.7738441750495875 20.821157031678368 1.8578599574552108 1 0 0
1191 1 -4.502752941407118e-07 0.7377589197818403 18.198784838634484 1.7544509572331564 0 0 0
766 1 4.610727712676954e-06 6.863422740275301 19.279718992412704 1.5861621009793638 0 0 0
1827 1 -1.31454586006774e-06 3.2110166419310966 20.238596306311578 1.2205987142618921 0 0 0
445 1 -2.974165568998821e-06 5.408091449734111 19.46921551703215 1.3854406438732647 0 0 0
5 1 4.25825928707102e-06 4.576390754046792 20.65615981416274 1.3279890359517996 0 0 0
901 1 2.470286975531089e-06 2.53224827146842 16.44464197452427 1.2058580045634002 0 0 0
141 1 -4.614867029628655e-07 6.71021041416549 15.381590710191176 1.785596677284267 0 0 0
739 1 -3.146919453862751e-06 3.8848691379999925 15.973270158710575 1.408514006621995 0 0 0
603 1 5.886240954239286e-07 2.074297625339216 17.798674378924645 1.3371162327529098 0 0 0
9865 1 2.303216094345917e-06 4.951519121941281 16.968211537922524 1.446380706569886 0 0 0
891 1 -1.181757462026534e-07 6.36629484105995 16.74164303013266 1.5973099582730668 0 0 0
915 1 7.65552705450645e-07 4.500837863552762 18.337589433842307 1.2875906702565485 0 0 0
895 1 -1.930050529772021e-06 3.1201959939441815 18.770857245569427 1.306108373693486 0 0 0
1350 1 -1.210172647043983e-06 1.586280092333195 15.36101685126818 1.1818687298118074 0 0 0
1697 1 1.393842736660544e-06 4.320398761335575 14.60507742279659 1.5569242873144837 0 0 0
899 1 -2.410189231215332e-06 7.268140191236344 17.91684299857608 1.6153351536307174 0 0 0
294 1 -3.309812886834185e-06 13.477047299693687 18.925107304641237 2.2078895540189944 0 0 0
8069 1 2.428531592185701e-06 12.065609828801811 19.248672914873936 2.033083814935087 0 0 0
9582 1 -6.761148503293957e-06 11.66364243078628 20.605721432478717 2.335174029116698 0 0 0
8823 1 4.41823639484723e-06 9.190596293082203 19.99209719656878 2.0001173853325453 0 0 0
1213 1 -3.424481564193171e-06 7.799078729156763 20.334773678562293 1.8707867485314795 0 0 0
1058 1 -3.250991009826065e-06 12.893982763301551 16.491182742756198 2.1694709280317332 0 0 0
438 1 -2.636116449482306e-06 11.045949835396623 18.237850911170217 2.008235129385414 0 0 0
8966 1 3.009130993929243e-06 11.498849044683816 16.865039853773034 2.1796543259497962 0 0 0
880 1 1.441015934272594e-06 8.647544248046316 17.595445933529454 1.8796255185524755 0 0 0
1 1 -2.26808809800777e-06 9.65620067887757 18.617774915589624 1.9325477873517471 0 0 0
1183 1 -3.907686015429401e-06 10.920697128345534 14.526162667481648 2.485304093152749 0 0 0
1216 1 8.088560475572049e-07 13.330539423167517 15.107088523457776 2.073500078198573 0 0 0
460 1 2.071806214296035e-07 10.431360360332443 15.890518437441921 2.3013001410557856 0 0 0
10032 1 -1.350879763120649e-07 9.07451626188324 16.201830708174075 2.08069251576222 0 0 0
10028 1 1.470154560444248e-06 8.109645995926064 15.121625107861943 1.9301006558451428 0 0 0
1219 1 3.687615736255867e-06 13.85986814911215 17.544889890453796 2.2376939538953153 0 0 0
1524 1 3.101933261320799e-06 10.249836519315062 20.932955586159085 2.2286247588211263 0 0 0
140 1 -8.896294611190902e-07 19.880693911468583 18.644630606010562 3.3981106612100125 0 0 0
920 1 1.20262556535522e-06 18.119739741403258 20.31987681270727 3.1502997825574317 0 0 0
1370 1 2.088590748169916e-06 14.471042542457237 19.952930171279192 2.518476346169068 0 0 0
611 1 -1.602175228355984e-06 15.877125889548969 19.73678593893935 2.688979247032908 0 0 0
609 1 1.389228703199685e-06 17.474342683205155 17.86299323229715 2.8552991977162607 0 0 0
163 1 1.526529597721538e-06 16.79573455755023 20.82379462389163 2.962721473766756 0 0 0
8817 1 -3.011222587293028e-06 19.798021868899372 14.844742189727523 3.1028313381974324 0 0 0
9137 1 2.978838661155114e-07 19.350586003948543 16.223416253649958 3.170697233175225 0 0 0
320 1 2.122792742337287e-06 18.465548914286252 18.88072191830831 3.175999869923629 0 0 0
9895 1 -2.533298297149877e-06 15.267989474072113 17.16334527548787 2.3653451386939253 0 0 0
8963 1 -1.148402935420567e-06 17.00849806484066 15.448837993215971 2.626240353217977 0 0 0
751 1 -2.597380890922985e-08 16.127994741018448 18.290144515765345 2.592580260842116 0 0 0
9282 1 1.317245072879336e-07 17.96630720896848 16.49343701271955 2.902778100734606 0 0 0
434 1 1.800573895760493e-06 14.713318306925686 14.6853085791138 2.035401244912276 0 0 0
757 1 -1.777689959958639e-07 15.631879525062924 15.759493944198514 2.3058587744231214 0 0 0
9 1 1.689557472671355e-06 20.361401651972198 20.001982622631516 3.471271639301242 0 0 0
1348 1 3.590243923781711e-06 20.329691029215873 17.278053885121388 3.3433577184719283 0 0 0
300 1 8.888192644662674e-07 21.75198038737792 20.35121761086741 3.386223037180773 0 0 0
1193 1 -7.579757172609947e-07 21.19753536566858 14.51980904175585 3.179672031077202 0 0 0